
                                 *****************
                                 * O   R   C   A *
                                 *****************

           --- An Ab Initio, DFT and Semiempirical electronic structure package ---

                  #######################################################
                  #                        -***-                        #
                  #          Department of theory and spectroscopy      #
                  #               Directorship: Frank Neese             #
                  #        Max Planck Institute fuer Kohlenforschung    #
                  #                Kaiser Wilhelm Platz 1               #
                  #                 D-45470 Muelheim/Ruhr               #
                  #                      Germany                        #
                  #                                                     #
                  #                  All rights reserved                #
                  #                        -***-                        #
                  #######################################################


                         Program Version 4.2.1 -  RELEASE  -


 With contributions from (in alphabetic order):
   Daniel Aravena         : Magnetic Suceptibility
   Michael Atanasov       : Ab Initio Ligand Field Theory (pilot matlab implementation)
   Alexander A. Auer      : GIAO ZORA, VPT2
   Ute Becker             : Parallelization
   Giovanni Bistoni       : ED, misc. LED, open-shell LED, HFLD
   Martin Brehm           : Molecular dynamics
   Dmytro Bykov           : SCF Hessian
   Vijay G. Chilkuri      : MRCI spin determinant printing, contributions to CSF-ICE
   Dipayan Datta          : RHF DLPNO-CCSD density
   Achintya Kumar Dutta   : EOM-CC, STEOM-CC
   Dmitry Ganyushin       : Spin-Orbit,Spin-Spin,Magnetic field MRCI
   Miquel Garcia          : C-PCM Hessian, Gaussian charge scheme
   Yang Guo               : DLPNO-NEVPT2, CIM, IAO-localization
   Andreas Hansen         : Spin unrestricted coupled pair/coupled cluster methods
   Benjamin Helmich-Paris : CASSCF linear response (MC-RPA)
   Lee Huntington         : MR-EOM, pCC
   Robert Izsak           : Overlap fitted RIJCOSX, COSX-SCS-MP3, EOM
   Christian Kollmar      : KDIIS, OOCD, Brueckner-CCSD(T), CCSD density
   Simone Kossmann        : Meta GGA functionals, TD-DFT gradient, OOMP2, MP2 Hessian
   Martin Krupicka        : AUTO-CI
   Lucas Lang             : DCDCAS
   Dagmar Lenk            : GEPOL surface, SMD
   Dimitrios Liakos       : Extrapolation schemes; Compound Job, initial MDCI parallelization
   Dimitrios Manganas     : Further ROCIS development; embedding schemes
   Dimitrios Pantazis     : SARC Basis sets
   Taras Petrenko         : DFT Hessian,TD-DFT gradient, ASA, ECA, R-Raman, ABS, FL, XAS/XES, NRVS
   Peter Pinski           : DLPNO-MP2, DLPNO-MP2 Gradient
   Christoph Reimann      : Effective Core Potentials
   Marius Retegan         : Local ZFS, SOC
   Christoph Riplinger    : Optimizer, TS searches, QM/MM, DLPNO-CCSD(T), (RO)-DLPNO pert. Triples
   Tobias Risthaus        : Range-separated hybrids, TD-DFT gradient, RPA, STAB
   Michael Roemelt        : Original ROCIS implementation
   Masaaki Saitow         : Open-shell DLPNO-CCSD energy and density
   Barbara Sandhoefer     : DKH picture change effects
   Avijit Sen             : IP-ROCIS
   Kantharuban Sivalingam : CASSCF convergence, NEVPT2, FIC-MRCI
   Bernardo de Souza      : ESD, SOC TD-DFT
   Georgi Stoychev        : AutoAux, RI-MP2 NMR
   Willem Van den Heuvel  : Paramagnetic NMR
   Boris Wezisla          : Elementary symmetry handling
   Frank Wennmohs         : Technical directorship


 We gratefully acknowledge several colleagues who have allowed us to
 interface, adapt or use parts of their codes:
   Stefan Grimme, W. Hujo, H. Kruse,             : VdW corrections, initial TS optimization,
                  C. Bannwarth                     DFT functionals, gCP, sTDA/sTD-DF
   Ed Valeev, F. Pavosevic, A. Kumar             : LibInt (2-el integral package), F12 methods
   Garnet Chan, S. Sharma, J. Yang, R. Olivares  : DMRG
   Ulf Ekstrom                                   : XCFun DFT Library
   Mihaly Kallay                                 : mrcc  (arbitrary order and MRCC methods)
   Andreas Klamt, Michael Diedenhofen            : otool_cosmo (COSMO solvation model)
   Jiri Pittner, Ondrej Demel                    : Mk-CCSD
   Frank Weinhold                                : gennbo (NPA and NBO analysis)
   Christopher J. Cramer and Donald G. Truhlar   : smd solvation model
   Lars Goerigk                                  : TD-DFT with DH, B97 family of functionals
   V. Asgeirsson, H. Jonsson                     : NEB implementation
   FAccTs GmbH                                   : IRC, NEB, NEB-TS, Multilevel, MM, QM/MM, CI optimization
   S Lehtola, MJT Oliveira, MAL Marques          : LibXC Library


 Your calculation uses the libint2 library for the computation of 2-el integrals
 For citations please refer to: http://libint.valeyev.net

 Your ORCA version has been built with support for libXC version: 4.2.3
 For citations please refer to: https://tddft.org/programs/libxc/

 This ORCA versions uses:
   CBLAS   interface :  Fast vector & matrix operations
   LAPACKE interface :  Fast linear algebra routines
   SCALAPACK package :  Parallel linear algebra routines


Your calculation utilizes the atom-pairwise dispersion correction
with the Becke-Johnson damping scheme (D3BJ)
Cite in your paper:
S.Grimme, S.Ehrlich, L.Goerigk, J Comput Chem, (2011), 32, 1456–1465
S.Grimme, J.Antony, S.Ehrlich and H.Krieg, J.Chem.Phys., 132, (2010), 154104


----- Orbital basis set information -----
Your calculation utilizes the basis: def2-TZVP
   F. Weigend and R. Ahlrichs, Phys. Chem. Chem. Phys. 7, 3297 (2005).

----- AuxJ basis set information -----
Your calculation utilizes the auxiliary basis: def2/J
   F. Weigend, Phys. Chem. Chem. Phys. 8, 1057 (2006).

================================================================================
                                        WARNINGS
                       Please study these warnings very carefully!
================================================================================


WARNING: Geometry Optimization
  ===> : Switching off AutoStart
         For restart on a previous wavefunction, please use MOREAD

INFO   : the flag for use of LIBINT has been found!

================================================================================
                                       INPUT FILE
================================================================================
NAME = thiophene_DFT.inp
|  1> ! B3LYP D3BJ def2-TZVP def2/J RIJCOSX OPT FREQ
|  2> %maxcore 50000
|  3> %pal
|  4> 	nproc 24
|  5> end
|  6> * xyz 0 1
|  7> 	C       -2.93722        1.52603        0.00000
|  8> 	C       -2.36647        0.25144        0.00000
|  9> 	C       -0.40058        1.55287        0.00000
| 10> 	C       -0.94423        0.26649        0.00000
| 11> 	H       -2.95004       -0.65941        0.00000
| 12> 	H       -0.34152       -0.63181        0.00000
| 13> 	S       -1.68019        2.60666        0.00000
| 14> 	H       -3.99352        1.75811        0.00000
| 15> 	H        0.65058        1.80726        0.00000
| 16> *
| 17>
| 18>
| 19>                          ****END OF INPUT****
================================================================================

                       *****************************
                       * Geometry Optimization Run *
                       *****************************

Geometry optimization settings:
Update method            Update   .... BFGS
Choice of coordinates    CoordSys .... Z-matrix Internals
Initial Hessian          InHess   .... Almoef's Model

Convergence Tolerances:
Energy Change            TolE     ....  5.0000e-06 Eh
Max. Gradient            TolMAXG  ....  3.0000e-04 Eh/bohr
RMS Gradient             TolRMSG  ....  1.0000e-04 Eh/bohr
Max. Displacement        TolMAXD  ....  4.0000e-03 bohr
RMS Displacement         TolRMSD  ....  2.0000e-03 bohr
Strict Convergence                ....  False
------------------------------------------------------------------------------
                        ORCA OPTIMIZATION COORDINATE SETUP
------------------------------------------------------------------------------

The optimization will be done in new redundant internal coordinates
Making redundant internal coordinates   ...  (new redundants) done
Evaluating the initial hessian          ...  (Almloef) done
Evaluating the coordinates              ...  done
Calculating the B-matrix                .... done
Calculating the G-matrix                .... done
Diagonalizing the G-matrix              .... done
The first mode is                       ....   17
The number of degrees of freedom        ....   21

    -----------------------------------------------------------------
                    Redundant Internal Coordinates


    -----------------------------------------------------------------
         Definition                    Initial Value    Approx d2E/dq
    -----------------------------------------------------------------
      1. B(C   1,C   0)                  1.3965         0.609955
      2. B(C   3,C   1)                  1.4223         0.554849
      3. B(C   3,C   2)                  1.3965         0.609960
      4. B(H   4,C   1)                  1.0818         0.371169
      5. B(H   5,C   3)                  1.0818         0.371169
      6. B(S   6,C   2)                  1.6577         0.630164
      7. B(S   6,C   0)                  1.6577         0.630156
      8. B(H   7,C   0)                  1.0815         0.371529
      9. B(H   8,C   2)                  1.0815         0.371516
     10. A(S   6,C   0,H   7)          126.9238         0.374489
     11. A(C   1,C   0,H   7)          126.5140         0.353801
     12. A(C   1,C   0,S   6)          106.5622         0.458284
     13. A(C   0,C   1,C   3)          113.5161         0.424261
     14. A(C   0,C   1,H   4)          123.2304         0.353743
     15. A(C   3,C   1,H   4)          123.2534         0.348129
     16. A(C   3,C   2,H   8)          126.5144         0.353800
     17. A(S   6,C   2,H   8)          126.9232         0.374487
     18. A(C   3,C   2,S   6)          106.5624         0.458285
     19. A(C   2,C   3,H   5)          123.2307         0.353743
     20. A(C   1,C   3,H   5)          123.2532         0.348129
     21. A(C   1,C   3,C   2)          113.5162         0.424262
     22. A(C   0,S   6,C   2)           99.8431         0.487135
     23. D(C   3,C   1,C   0,S   6)      0.0000         0.025695
     24. D(C   3,C   1,C   0,H   7)    180.0000         0.025695
     25. D(H   4,C   1,C   0,H   7)      0.0000         0.025695
     26. D(H   4,C   1,C   0,S   6)    180.0000         0.025695
     27. D(C   2,C   3,C   1,H   4)    180.0000         0.021073
     28. D(H   5,C   3,C   1,C   0)    180.0000         0.021073
     29. D(H   5,C   3,C   2,H   8)      0.0000         0.025695
     30. D(C   1,C   3,C   2,H   8)    180.0000         0.025695
     31. D(C   2,C   3,C   1,C   0)      0.0000         0.021073
     32. D(H   5,C   3,C   2,S   6)    180.0000         0.025695
     33. D(C   1,C   3,C   2,S   6)      0.0000         0.025695
     34. D(H   5,C   3,C   1,H   4)      0.0000         0.021073
     35. D(C   0,S   6,C   2,C   3)      0.0000         0.007539
     36. D(C   2,S   6,C   0,H   7)    180.0000         0.007538
     37. D(C   2,S   6,C   0,C   1)      0.0000         0.007538
     38. D(C   0,S   6,C   2,H   8)    180.0000         0.007539
    -----------------------------------------------------------------

Number of atoms                         .... 9
Number of degrees of freedom            .... 38

         *************************************************************
         *                GEOMETRY OPTIMIZATION CYCLE   1            *
         *************************************************************
---------------------------------
CARTESIAN COORDINATES (ANGSTROEM)
---------------------------------
  C     -2.937220    1.526030    0.000000
  C     -2.366470    0.251440    0.000000
  C     -0.400580    1.552870    0.000000
  C     -0.944230    0.266490    0.000000
  H     -2.950040   -0.659410    0.000000
  H     -0.341520   -0.631810    0.000000
  S     -1.680190    2.606660    0.000000
  H     -3.993520    1.758110    0.000000
  H      0.650580    1.807260    0.000000

----------------------------
CARTESIAN COORDINATES (A.U.)
----------------------------
  NO LB      ZA    FRAG     MASS         X           Y           Z
   0 C     6.0000    0    12.011   -5.550541    2.883779    0.000000
   1 C     6.0000    0    12.011   -4.471980    0.475153    0.000000
   2 C     6.0000    0    12.011   -0.756986    2.934499    0.000000
   3 C     6.0000    0    12.011   -1.784336    0.503593    0.000000
   4 H     1.0000    0     1.008   -5.574768   -1.246104    0.000000
   5 H     1.0000    0     1.008   -0.645379   -1.193948    0.000000
   6 S    16.0000    0    32.060   -3.175099    4.925874    0.000000
   7 H     1.0000    0     1.008   -7.546659    3.322346    0.000000
   8 H     1.0000    0     1.008    1.229418    3.415226    0.000000

--------------------------------
INTERNAL COORDINATES (ANGSTROEM)
--------------------------------
 C      0   0   0     0.000000000000     0.00000000     0.00000000
 C      1   0   0     1.396544031028     0.00000000     0.00000000
 C      2   1   0     2.357635157738    80.61762981     0.00000000
 C      3   2   1     1.396541738331    33.58532675   180.00000000
 H      2   1   3     1.081758599411   123.23042204   180.00000000
 H      4   3   2     1.081758861346   123.23066222   180.00000000
 S      3   2   1     1.657671594798    72.97706564     0.00000000
 H      1   2   3     1.081494713995   126.51399403   180.00000121
 H      3   2   1     1.081504330874   160.09973397   180.00000000

---------------------------
INTERNAL COORDINATES (A.U.)
---------------------------
 C      0   0   0     0.000000000000     0.00000000     0.00000000
 C      1   0   0     2.639085752605     0.00000000     0.00000000
 C      2   1   0     4.455284771828    80.61762981     0.00000000
 C      3   2   1     2.639081420036    33.58532675   180.00000000
 H      2   1   3     2.044227495901   123.23042204   180.00000000
 H      4   3   2     2.044227990886   123.23066222   180.00000000
 S      3   2   1     3.132545334149    72.97706564     0.00000000
 H      1   2   3     2.043728824735   126.51399403   180.00000121
 H      3   2   1     2.043746998002   160.09973397   180.00000000

---------------------
BASIS SET INFORMATION
---------------------
There are 3 groups of distinct atoms

 Group   1 Type C   : 11s6p2d1f contracted to 5s3p2d1f pattern {62111/411/11/1}
 Group   2 Type H   : 5s1p contracted to 3s1p pattern {311/1}
 Group   3 Type S   : 14s9p3d1f contracted to 5s5p2d1f pattern {73211/51111/21/1}

Atom   0C    basis set group =>   1
Atom   1C    basis set group =>   1
Atom   2C    basis set group =>   1
Atom   3C    basis set group =>   1
Atom   4H    basis set group =>   2
Atom   5H    basis set group =>   2
Atom   6S    basis set group =>   3
Atom   7H    basis set group =>   2
Atom   8H    basis set group =>   2
---------------------------------
AUXILIARY/J BASIS SET INFORMATION
---------------------------------
There are 3 groups of distinct atoms

 Group   1 Type C   : 12s5p4d2f1g contracted to 6s4p3d1f1g pattern {711111/2111/211/2/1}
 Group   2 Type H   : 5s2p1d contracted to 3s1p1d pattern {311/2/1}
 Group   3 Type S   : 14s5p5d2f1g contracted to 8s4p3d1f1g pattern {71111111/2111/311/2/1}

Atom   0C    basis set group =>   1
Atom   1C    basis set group =>   1
Atom   2C    basis set group =>   1
Atom   3C    basis set group =>   1
Atom   4H    basis set group =>   2
Atom   5H    basis set group =>   2
Atom   6S    basis set group =>   3
Atom   7H    basis set group =>   2
Atom   8H    basis set group =>   2


           ************************************************************
           *        Program running with 24 parallel MPI-processes    *
           *              working on a common directory               *
           ************************************************************
------------------------------------------------------------------------------
                           ORCA GTO INTEGRAL CALCULATION
                           -- RI-GTO INTEGRALS CHOSEN --
------------------------------------------------------------------------------

                         BASIS SET STATISTICS AND STARTUP INFO

Gaussian basis set:
 # of primitive gaussian shells          ...  131
 # of primitive gaussian functions       ...  279
 # of contracted shells                  ...   73
 # of contracted basis functions         ...  185
 Highest angular momentum                ...    3
 Maximum contraction depth               ...    7
Auxiliary gaussian basis set:
 # of primitive gaussian shells          ...  155
 # of primitive gaussian functions       ...  421
 # of contracted shells                  ...   97
 # of contracted aux-basis functions     ...  291
 Highest angular momentum                ...    4
 Maximum contraction depth               ...    7
Ratio of auxiliary to basis functions    ...  1.57
Integral package used                  ... LIBINT
 One Electron integrals                  ... done
 Ordering auxiliary basis shells         ... done
 Integral threshhold             Thresh  ...  2.500e-11
 Primitive cut-off               TCut    ...  2.500e-12
 Pre-screening matrix                    ... done
 Shell pair data                         ...
 Ordering of the shell pairs             ... done (   0.003 sec) 2623 of 2701 pairs
 Determination of significant pairs      ... done (   0.000 sec)
 Creation of shell pair data             ... done (   0.002 sec)
 Storage of shell pair data              ... done (   0.014 sec)
 Shell pair data done in (   0.019 sec)
 Computing two index integrals           ... done
 Cholesky decomposition of the V-matrix  ... done


Timings:
 Total evaluation time                   ...   0.674 sec (  0.011 min)
 One electron matrix time                ...   0.095 sec (  0.002 min) = 14.1%
 Schwartz matrix evaluation time         ...   0.173 sec (  0.003 min) = 25.6%
 Two index repulsion integral time       ...   0.050 sec (  0.001 min) =  7.5%
 Cholesky decomposition of V             ...   0.300 sec (  0.005 min) = 44.6%
 Three index repulsion integral time     ...   0.000 sec (  0.000 min) =  0.0%



           ************************************************************
           *        Program running with 24 parallel MPI-processes    *
           *              working on a common directory               *
           ************************************************************
-------------------------------------------------------------------------------
                                 ORCA SCF
-------------------------------------------------------------------------------

------------
SCF SETTINGS
------------
Hamiltonian:
 Density Functional     Method          .... DFT(GTOs)
 Exchange Functional    Exchange        .... B88
   X-Alpha parameter    XAlpha          ....  0.666667
   Becke's b parameter  XBeta           ....  0.004200
 Correlation Functional Correlation     .... LYP
 LDA part of GGA corr.  LDAOpt          .... VWN-5
 Gradients option       PostSCFGGA      .... off
 Hybrid DFT is turned on
   Fraction HF Exchange ScalHFX         ....  0.200000
   Scaling of DF-GGA-X  ScalDFX         ....  0.720000
   Scaling of DF-GGA-C  ScalDFC         ....  0.810000
   Scaling of DF-LDA-C  ScalLDAC        ....  1.000000
   Perturbative correction              ....  0.000000
   Density functional embedding theory  .... OFF
   NL short-range parameter             ....  4.800000
 RI-approximation to the Coulomb term is turned on
   Number of auxiliary basis functions  .... 291
   RIJ-COSX (HFX calculated with COS-X)).... on


General Settings:
 Integral files         IntName         .... thiophene_DFT
 Hartree-Fock type      HFTyp           .... RHF
 Total Charge           Charge          ....    0
 Multiplicity           Mult            ....    1
 Number of Electrons    NEL             ....   44
 Basis Dimension        Dim             ....  185
 Nuclear Repulsion      ENuc            ....    205.6226094494 Eh

Convergence Acceleration:
 DIIS                   CNVDIIS         .... on
   Start iteration      DIISMaxIt       ....    12
   Startup error        DIISStart       ....  0.200000
   # of expansion vecs  DIISMaxEq       ....     5
   Bias factor          DIISBfac        ....   1.050
   Max. coefficient     DIISMaxC        ....  10.000
 Newton-Raphson         CNVNR           .... off
 SOSCF                  CNVSOSCF        .... on
   Start iteration      SOSCFMaxIt      ....   150
   Startup grad/error   SOSCFStart      ....  0.003300
 Level Shifting         CNVShift        .... on
   Level shift para.    LevelShift      ....    0.2500
   Turn off err/grad.   ShiftErr        ....    0.0010
 Zerner damping         CNVZerner       .... off
 Static damping         CNVDamp         .... on
   Fraction old density DampFac         ....    0.7000
   Max. Damping (<1)    DampMax         ....    0.9800
   Min. Damping (>=0)   DampMin         ....    0.0000
   Turn off err/grad.   DampErr         ....    0.1000
 Fernandez-Rico         CNVRico         .... off

SCF Procedure:
 Maximum # iterations   MaxIter         ....   125
 SCF integral mode      SCFMode         .... Direct
   Integral package                     .... LIBINT
 Reset frequency        DirectResetFreq ....    20
 Integral Threshold     Thresh          ....  2.500e-11 Eh
 Primitive CutOff       TCut            ....  2.500e-12 Eh

Convergence Tolerance:
 Convergence Check Mode ConvCheckMode   .... Total+1el-Energy
 Convergence forced     ConvForced      .... 0
 Energy Change          TolE            ....  1.000e-08 Eh
 1-El. energy change                    ....  1.000e-05 Eh
 Orbital Gradient       TolG            ....  1.000e-05
 Orbital Rotation angle TolX            ....  1.000e-05
 DIIS Error             TolErr          ....  5.000e-07


Diagonalization of the overlap matrix:
Smallest eigenvalue                        ... 1.022e-04
Time for diagonalization                   ...    0.749 sec
Threshold for overlap eigenvalues          ... 1.000e-08
Number of eigenvalues below threshold      ... 0
Time for construction of square roots      ...    0.034 sec
Total time needed                          ...    0.783 sec

-------------------
DFT GRID GENERATION
-------------------

General Integration Accuracy     IntAcc      ...  4.340
Radial Grid Type                 RadialGrid  ... Gauss-Chebyshev
Angular Grid (max. acc.)         AngularGrid ... Lebedev-110
Angular grid pruning method      GridPruning ... 3 (G Style)
Weight generation scheme         WeightScheme... Becke
Basis function cutoff            BFCut       ...    1.0000e-11
Integration weight cutoff        WCut        ...    1.0000e-14
Grids for H and He will be reduced by one unit

# of grid points (after initial pruning)     ...  11606 (   0.0 sec)
# of grid points (after weights+screening)   ...  11059 (   0.0 sec)
nearest neighbour list constructed           ...    0.0 sec
Grid point re-assignment to atoms done       ...    0.0 sec
Grid point division into batches done        ...    0.0 sec
Reduced shell lists constructed in    0.0 sec

Total number of grid points                  ...    11059
Total number of batches                      ...      179
Average number of points per batch           ...       61
Average number of grid points per atom       ...     1229
Average number of shells per batch           ...    55.56 (76.10%)
Average number of basis functions per batch  ...   151.56 (81.92%)
Average number of large shells per batch     ...    48.67 (87.60%)
Average number of large basis fcns per batch ...   134.89 (89.00%)
Maximum spatial batch extension              ...   3.24,  3.83, 19.13 au
Average spatial batch extension              ...   0.10,  0.12,  0.29 au

Time for grid setup =    0.180 sec

------------------------------
INITIAL GUESS: MODEL POTENTIAL
------------------------------
Loading Hartree-Fock densities                     ... done
Calculating cut-offs                               ... done
Setting up the integral package                    ... done
Initializing the effective Hamiltonian             ... done
Starting the Coulomb interaction                   ... done (   0.0 sec)
Reading the grid                                   ... done
Mapping shells                                     ... done
Starting the XC term evaluation                    ... done (   0.0 sec)
  promolecular density results
     # of electrons  =     43.999693790
     EX              =    -46.797413714
     EC              =     -1.583906327
     EX+EC           =    -48.381320041
Transforming the Hamiltonian                       ... done (   0.0 sec)
Diagonalizing the Hamiltonian                      ... done (   0.0 sec)
Back transforming the eigenvectors                 ... done (   0.0 sec)
Now organizing SCF variables                       ... done
                      ------------------
                      INITIAL GUESS DONE (   0.4 sec)
                      ------------------
--------------------
COSX GRID GENERATION
--------------------

General Integration Accuracy     IntAcc      ...  3.340
Radial Grid Type                 RadialGrid  ... Gauss-Chebyshev
Angular Grid (max. acc.)         AngularGrid ... Lebedev-50
Angular grid pruning method      GridPruning ... 3 (G Style)
Weight generation scheme         WeightScheme... Becke
Basis function cutoff            BFCut       ...    1.0000e-11
Integration weight cutoff        WCut        ...    1.0000e-14
Grids for H and He will be reduced by one unit

# of grid points (after initial pruning)     ...   4306 (   0.0 sec)
# of grid points (after weights+screening)   ...   4136 (   0.0 sec)
nearest neighbour list constructed           ...    0.0 sec
Grid point re-assignment to atoms done       ...    0.0 sec
Grid point division into batches done        ...    0.0 sec
Reduced shell lists constructed in    0.0 sec

Total number of grid points                  ...     4136
Total number of batches                      ...       69
Average number of points per batch           ...       59
Average number of grid points per atom       ...      460
Average number of shells per batch           ...    49.25 (67.47%)
Average number of basis functions per batch  ...   133.25 (72.03%)
Average number of large shells per batch     ...    45.25 (91.88%)
Average number of large basis fcns per batch ...   124.75 (93.62%)
Maximum spatial batch extension              ...   3.22,  4.00, 16.72 au
Average spatial batch extension              ...   0.12,  0.14,  0.51 au

Overlap Fitting                  UseSFitting ... on
Constructing numerical overlap ... done (      0.0 sec)
Inverting numerical overlap    ... done (      0.1 sec)
Obtaining analytic overlap     ... done (      0.0 sec)
Final contraction and storage  ... done (      0.0 sec)


General Integration Accuracy     IntAcc      ...  3.670
Radial Grid Type                 RadialGrid  ... Gauss-Chebyshev
Angular Grid (max. acc.)         AngularGrid ... Lebedev-50
Angular grid pruning method      GridPruning ... 3 (G Style)
Weight generation scheme         WeightScheme... Becke
Basis function cutoff            BFCut       ...    1.0000e-11
Integration weight cutoff        WCut        ...    1.0000e-14
Grids for H and He will be reduced by one unit

# of grid points (after initial pruning)     ...   5438 (   0.0 sec)
# of grid points (after weights+screening)   ...   5216 (   0.0 sec)
nearest neighbour list constructed           ...    0.0 sec
Grid point re-assignment to atoms done       ...    0.0 sec
Grid point division into batches done        ...    0.0 sec
Reduced shell lists constructed in    0.0 sec

Total number of grid points                  ...     5216
Total number of batches                      ...       89
Average number of points per batch           ...       58
Average number of grid points per atom       ...      580
Average number of shells per batch           ...    51.40 (70.41%)
Average number of basis functions per batch  ...   139.80 (75.57%)
Average number of large shells per batch     ...    46.40 (90.27%)
Average number of large basis fcns per batch ...   128.40 (91.85%)
Maximum spatial batch extension              ...   3.03,  3.93, 17.91 au
Average spatial batch extension              ...   0.10,  0.13,  0.46 au

Overlap Fitting                  UseSFitting ... on
Constructing numerical overlap ... done (      0.0 sec)
Inverting numerical overlap    ... done (      0.0 sec)
Obtaining analytic overlap     ... done (      0.0 sec)
Final contraction and storage  ... done (      0.0 sec)


General Integration Accuracy     IntAcc      ...  4.010
Radial Grid Type                 RadialGrid  ... Gauss-Chebyshev
Angular Grid (max. acc.)         AngularGrid ... Lebedev-110
Angular grid pruning method      GridPruning ... 3 (G Style)
Weight generation scheme         WeightScheme... Becke
Basis function cutoff            BFCut       ...    1.0000e-11
Integration weight cutoff        WCut        ...    1.0000e-14
Grids for H and He will be reduced by one unit

# of grid points (after initial pruning)     ...  10176 (   0.0 sec)
# of grid points (after weights+screening)   ...   9710 (   0.0 sec)
nearest neighbour list constructed           ...    0.0 sec
Grid point re-assignment to atoms done       ...    0.0 sec
Grid point division into batches done        ...    0.0 sec
Reduced shell lists constructed in    0.0 sec

Total number of grid points                  ...     9710
Total number of batches                      ...      156
Average number of points per batch           ...       62
Average number of grid points per atom       ...     1079
Average number of shells per batch           ...    53.75 (73.63%)
Average number of basis functions per batch  ...   148.50 (80.27%)
Average number of large shells per batch     ...    47.75 (88.84%)
Average number of large basis fcns per batch ...   133.50 (89.90%)
Maximum spatial batch extension              ...   3.32,  3.66, 18.11 au
Average spatial batch extension              ...   0.11,  0.12,  0.30 au

Overlap Fitting                  UseSFitting ... on
Constructing numerical overlap ... done (      0.0 sec)
Inverting numerical overlap    ... done (      0.0 sec)
Obtaining analytic overlap     ... done (      0.0 sec)
Final contraction and storage  ... done (      0.0 sec)

Time for X-Grid setup             =    0.667 sec
--------------
SCF ITERATIONS
--------------
ITER       Energy         Delta-E        Max-DP      RMS-DP      [F,P]     Damp
               ***  Starting incremental Fock matrix formation  ***
  0   -552.7490182753   0.000000000000 0.03356937  0.00119663  0.1516831 0.7000
  1   -552.8355285783  -0.086510303028 0.02487085  0.00086859  0.0756846 0.7000
                               ***Turning on DIIS***
  2   -552.8652405335  -0.029711955233 0.06924202  0.00140956  0.0307346 0.0000
  3   -552.9069007501  -0.041660216582 0.01703420  0.00067153  0.0422419 0.0000
  4   -552.9222503108  -0.015349560731 0.01285819  0.00028341  0.0130562 0.0000
  5   -552.9232812104  -0.001030899602 0.00306265  0.00011327  0.0038408 0.0000
                      *** Initiating the SOSCF procedure ***
                           *** Shutting down DIIS ***
                      *** Re-Reading the Fockian ***
                      *** Removing any level shift ***
ITER      Energy       Delta-E        Grad      Rot      Max-DP    RMS-DP
  6   -552.92337188  -0.0000906736  0.000474  0.000474  0.001105  0.000048
               *** Restarting incremental Fock matrix formation ***
  7   -552.92337844  -0.0000065606  0.000135  0.000361  0.000826  0.000029
  8   -552.92337907  -0.0000006260  0.000145  0.000553  0.000300  0.000012
  9   -552.92337924  -0.0000001676  0.000122  0.000311  0.000284  0.000009
 10   -552.92337938  -0.0000001369  0.000024  0.000037  0.000077  0.000001
 11   -552.92337937   0.0000000040  0.000018  0.000022  0.000028  0.000001
 12   -552.92337937  -0.0000000030  0.000006  0.000007  0.000025  0.000000
 13   -552.92337938  -0.0000000070  0.000003  0.000005  0.000011  0.000000
                  ***Gradient check signals convergence***
              ***Rediagonalizing the Fockian in SOSCF/NRSCF***

               *****************************************************
               *                     SUCCESS                       *
               *           SCF CONVERGED AFTER  14 CYCLES          *
               *****************************************************

Setting up the final grid:

General Integration Accuracy     IntAcc      ...  4.670
Radial Grid Type                 RadialGrid  ... Gauss-Chebyshev
Angular Grid (max. acc.)         AngularGrid ... Lebedev-302
Angular grid pruning method      GridPruning ... 3 (G Style)
Weight generation scheme         WeightScheme... Becke
Basis function cutoff            BFCut       ...    1.0000e-11
Integration weight cutoff        WCut        ...    1.0000e-14
Grids for H and He will be reduced by one unit

# of grid points (after initial pruning)     ...  45270 (   0.0 sec)
# of grid points (after weights+screening)   ...  42785 (   0.0 sec)
nearest neighbour list constructed           ...    0.0 sec
Grid point re-assignment to atoms done       ...    0.0 sec
Grid point division into batches done        ...    0.2 sec
Reduced shell lists constructed in    0.2 sec

Total number of grid points                  ...    42785
Total number of batches                      ...      674
Average number of points per batch           ...       63
Average number of grid points per atom       ...     4754
Average number of shells per batch           ...    56.70 (77.67%)
Average number of basis functions per batch  ...   156.10 (84.38%)
Average number of large shells per batch     ...    48.70 (85.89%)
Average number of large basis fcns per batch ...   134.83 (86.38%)
Maximum spatial batch extension              ...   3.07,  4.02, 16.53 au
Average spatial batch extension              ...   0.07,  0.08,  0.12 au

Final grid set up in    0.3 sec
Final integration                            ... done (   0.2 sec)
Change in XC energy                          ...     0.000248256
Integrated number of electrons               ...    44.000023612
Previous integrated no of electrons          ...    44.005247645
Old exchange energy                            =     -9.439008287 Eh
New exchange energy                            =     -9.439342198 Eh
Exchange energy change after final integration =     -0.000333910 Eh
Total energy after final integration           =   -552.923465032 Eh
Final COS-X integration done in                =     0.441 sec

----------------
TOTAL SCF ENERGY
----------------

Total Energy       :         -552.92346503 Eh          -15045.81240 eV

Components:
Nuclear Repulsion  :          205.62260945 Eh            5595.27566 eV
Electronic Energy  :         -758.54607448 Eh          -20641.08806 eV
One Electron Energy:        -1165.50713618 Eh          -31715.06154 eV
Two Electron Energy:          406.96106170 Eh           11073.97348 eV

Virial components:
Potential Energy   :        -1104.56523123 Eh          -30056.74800 eV
Kinetic Energy     :          551.64176619 Eh           15010.93560 eV
Virial Ratio       :            2.00232343


DFT components:
N(Alpha)           :       22.000011805925 electrons
N(Beta)            :       22.000011805925 electrons
N(Total)           :       44.000023611851 electrons
E(X)               :      -37.481824653115 Eh
E(C)               :       -1.867857675112 Eh
E(XC)              :      -39.349682328227 Eh
DFET-embed. en.    :        0.000000000000 Eh

---------------
SCF CONVERGENCE
---------------

  Last Energy change         ...    3.6325e-09  Tolerance :   1.0000e-08
  Last MAX-Density change    ...    1.5543e-15  Tolerance :   1.0000e-07
  Last RMS-Density change    ...    2.6470e-17  Tolerance :   5.0000e-09
  Last Orbital Gradient      ...    7.9589e-07  Tolerance :   1.0000e-05
  Last Orbital Rotation      ...    5.3660e-07  Tolerance :   1.0000e-05

             **** THE GBW FILE WAS UPDATED (thiophene_DFT.gbw) ****
             **** DENSITY FILE WAS UPDATED (thiophene_DFT.scfp) ****
             **** ENERGY FILE WAS UPDATED (thiophene_DFT.en.tmp) ****
             **** THE GBW FILE WAS UPDATED (thiophene_DFT.gbw) ****
             **** DENSITY FILE WAS UPDATED (thiophene_DFT.scfp) ****
----------------
ORBITAL ENERGIES
----------------

  NO   OCC          E(Eh)            E(eV)
   0   2.0000     -88.880304     -2418.5560
   1   2.0000     -10.195536      -277.4346
   2   2.0000     -10.195512      -277.4340
   3   2.0000     -10.176664      -276.9211
   4   2.0000     -10.176220      -276.9090
   5   2.0000      -7.958372      -216.5583
   6   2.0000      -5.920016      -161.0918
   7   2.0000      -5.916329      -160.9915
   8   2.0000      -5.916161      -160.9869
   9   2.0000      -0.892555       -24.2877
  10   2.0000      -0.730647       -19.8819
  11   2.0000      -0.728916       -19.8348
  12   2.0000      -0.565397       -15.3852
  13   2.0000      -0.554982       -15.1018
  14   2.0000      -0.512646       -13.9498
  15   2.0000      -0.433045       -11.7837
  16   2.0000      -0.393659       -10.7120
  17   2.0000      -0.390434       -10.6242
  18   2.0000      -0.388970       -10.5844
  19   2.0000      -0.327886        -8.9222
  20   2.0000      -0.249946        -6.8014
  21   2.0000      -0.243879        -6.6363
  22   0.0000      -0.016279        -0.4430
  23   0.0000       0.041310         1.1241
  24   0.0000       0.050379         1.3709
  25   0.0000       0.055200         1.5021
  26   0.0000       0.082417         2.2427
  27   0.0000       0.086423         2.3517
  28   0.0000       0.098575         2.6823
  29   0.0000       0.115074         3.1313
  30   0.0000       0.127635         3.4731
  31   0.0000       0.186429         5.0730
  32   0.0000       0.190761         5.1909
  33   0.0000       0.203510         5.5378
  34   0.0000       0.230595         6.2748
  35   0.0000       0.244240         6.6461
  36   0.0000       0.244837         6.6623
  37   0.0000       0.245348         6.6763
  38   0.0000       0.257549         7.0083
  39   0.0000       0.296559         8.0698
  40   0.0000       0.326444         8.8830
  41   0.0000       0.340356         9.2615
  42   0.0000       0.340431         9.2636
  43   0.0000       0.349689         9.5155
  44   0.0000       0.374650        10.1948
  45   0.0000       0.384590        10.4652
  46   0.0000       0.393473        10.7070
  47   0.0000       0.402610        10.9556
  48   0.0000       0.412031        11.2119
  49   0.0000       0.425114        11.5679
  50   0.0000       0.428057        11.6480
  51   0.0000       0.436066        11.8659
  52   0.0000       0.450408        12.2562
  53   0.0000       0.516355        14.0507
  54   0.0000       0.567905        15.4535
  55   0.0000       0.578584        15.7441
  56   0.0000       0.612695        16.6723
  57   0.0000       0.635587        17.2952
  58   0.0000       0.635983        17.3060
  59   0.0000       0.674671        18.3587
  60   0.0000       0.690102        18.7786
  61   0.0000       0.718551        19.5528
  62   0.0000       0.784641        21.3512
  63   0.0000       0.792194        21.5567
  64   0.0000       0.831997        22.6398
  65   0.0000       0.922332        25.0979
  66   0.0000       0.928265        25.2594
  67   0.0000       0.941526        25.6202
  68   0.0000       1.005937        27.3729
  69   0.0000       1.012676        27.5563
  70   0.0000       1.012777        27.5591
  71   0.0000       1.044667        28.4268
  72   0.0000       1.054800        28.7026
  73   0.0000       1.057648        28.7801
  74   0.0000       1.094153        29.7734
  75   0.0000       1.114665        30.3316
  76   0.0000       1.150928        31.3183
  77   0.0000       1.248462        33.9724
  78   0.0000       1.284858        34.9628
  79   0.0000       1.297916        35.3181
  80   0.0000       1.338624        36.4258
  81   0.0000       1.364377        37.1266
  82   0.0000       1.396445        37.9992
  83   0.0000       1.401629        38.1403
  84   0.0000       1.431409        38.9506
  85   0.0000       1.446737        39.3677
  86   0.0000       1.476841        40.1869
  87   0.0000       1.510685        41.1078
  88   0.0000       1.520383        41.3717
  89   0.0000       1.531721        41.6803
  90   0.0000       1.556345        42.3503
  91   0.0000       1.568761        42.6882
  92   0.0000       1.595482        43.4153
  93   0.0000       1.610254        43.8172
  94   0.0000       1.610541        43.8251
  95   0.0000       1.621793        44.1312
  96   0.0000       1.686506        45.8922
  97   0.0000       1.731278        47.1105
  98   0.0000       1.761096        47.9219
  99   0.0000       1.797031        48.8997
 100   0.0000       1.867805        50.8256
 101   0.0000       1.874721        51.0138
 102   0.0000       1.909558        51.9617
 103   0.0000       1.926427        52.4207
 104   0.0000       1.990037        54.1517
 105   0.0000       2.001050        54.4513
 106   0.0000       2.024464        55.0885
 107   0.0000       2.033842        55.3437
 108   0.0000       2.121491        57.7287
 109   0.0000       2.132519        58.0288
 110   0.0000       2.148253        58.4569
 111   0.0000       2.152739        58.5790
 112   0.0000       2.307045        62.7779
 113   0.0000       2.341424        63.7134
 114   0.0000       2.372829        64.5680
 115   0.0000       2.384312        64.8804
 116   0.0000       2.474366        67.3309
 117   0.0000       2.488176        67.7067
 118   0.0000       2.529934        68.8430
 119   0.0000       2.534277        68.9612
 120   0.0000       2.545803        69.2748
 121   0.0000       2.602371        70.8141
 122   0.0000       2.629183        71.5437
 123   0.0000       2.651059        72.1390
 124   0.0000       2.659172        72.3597
 125   0.0000       2.666052        72.5470
 126   0.0000       2.707494        73.6747
 127   0.0000       2.756117        74.9977
 128   0.0000       2.791600        75.9633
 129   0.0000       2.839572        77.2687
 130   0.0000       2.852363        77.6167
 131   0.0000       2.875009        78.2330
 132   0.0000       2.886698        78.5510
 133   0.0000       2.897741        78.8515
 134   0.0000       3.032635        82.5222
 135   0.0000       3.049125        82.9709
 136   0.0000       3.069756        83.5323
 137   0.0000       3.088866        84.0523
 138   0.0000       3.095417        84.2306
 139   0.0000       3.165698        86.1430
 140   0.0000       3.182918        86.6116
 141   0.0000       3.190116        86.8075
 142   0.0000       3.208230        87.3004
 143   0.0000       3.213726        87.4499
 144   0.0000       3.220005        87.6208
 145   0.0000       3.282702        89.3269
 146   0.0000       3.316791        90.2545
 147   0.0000       3.347744        91.0968
 148   0.0000       3.372013        91.7571
 149   0.0000       3.384237        92.0898
 150   0.0000       3.399302        92.4997
 151   0.0000       3.466503        94.3283
 152   0.0000       3.496486        95.1442
 153   0.0000       3.523801        95.8875
 154   0.0000       3.557838        96.8137
 155   0.0000       3.605103        98.0998
 156   0.0000       3.654800        99.4522
 157   0.0000       3.664184        99.7075
 158   0.0000       3.674207        99.9803
 159   0.0000       3.750457       102.0551
 160   0.0000       3.952490       107.5527
 161   0.0000       3.957372       107.6856
 162   0.0000       3.979985       108.3009
 163   0.0000       4.051738       110.2534
 164   0.0000       4.143431       112.7485
 165   0.0000       4.200497       114.3013
 166   0.0000       4.227975       115.0491
 167   0.0000       4.229688       115.0957
 168   0.0000       4.358129       118.5907
 169   0.0000       4.393174       119.5443
 170   0.0000       4.514783       122.8535
 171   0.0000       4.647683       126.4699
 172   0.0000       4.769242       129.7777
 173   0.0000       4.796399       130.5166
 174   0.0000       4.869155       132.4964
 175   0.0000       5.056528       137.5951
 176   0.0000       5.128323       139.5488
 177   0.0000       8.846395       240.7226
 178   0.0000       9.365999       254.8618
 179   0.0000       9.474530       257.8151
 180   0.0000      20.570676       559.7566
 181   0.0000      21.919987       596.4732
 182   0.0000      22.235376       605.0553
 183   0.0000      22.472465       611.5069
 184   0.0000      22.676139       617.0491

                    ********************************
                    * MULLIKEN POPULATION ANALYSIS *
                    ********************************

-----------------------
MULLIKEN ATOMIC CHARGES
-----------------------
   0 C :   -0.185136
   1 C :   -0.135041
   2 C :   -0.183492
   3 C :   -0.134142
   4 H :    0.114127
   5 H :    0.113615
   6 S :    0.089002
   7 H :    0.161073
   8 H :    0.159994
Sum of atomic charges:   -0.0000000

--------------------------------
MULLIKEN REDUCED ORBITAL CHARGES
--------------------------------
  0 C s       :     3.195720  s :     3.195720
      pz      :     1.092240  p :     2.907326
      px      :     0.926476
      py      :     0.888610
      dz2     :     0.005371  d :     0.074314
      dxz     :     0.008665
      dyz     :     0.024361
      dx2y2   :     0.014696
      dxy     :     0.021221
      f0      :     0.001601  f :     0.007775
      f+1     :     0.000922
      f-1     :     0.000585
      f+2     :     0.000156
      f-2     :     0.001285
      f+3     :     0.001376
      f-3     :     0.001850
  1 C s       :     3.228581  s :     3.228581
      pz      :     1.002212  p :     2.822842
      px      :     0.886619
      py      :     0.934011
      dz2     :     0.004987  d :     0.075719
      dxz     :     0.019226
      dyz     :     0.011491
      dx2y2   :     0.017647
      dxy     :     0.022368
      f0      :     0.001570  f :     0.007899
      f+1     :     0.000558
      f-1     :     0.000670
      f+2     :     0.001181
      f-2     :     0.000333
      f+3     :     0.001455
      f-3     :     0.002130
  2 C s       :     3.195036  s :     3.195036
      pz      :     1.091945  p :     2.906494
      px      :     0.923411
      py      :     0.891139
      dz2     :     0.005341  d :     0.074198
      dxz     :     0.008816
      dyz     :     0.024170
      dx2y2   :     0.014208
      dxy     :     0.021662
      f0      :     0.001600  f :     0.007764
      f+1     :     0.000916
      f-1     :     0.000588
      f+2     :     0.000193
      f-2     :     0.001245
      f+3     :     0.001389
      f-3     :     0.001833
  3 C s       :     3.229589  s :     3.229589
      pz      :     1.002256  p :     2.821007
      px      :     0.887345
      py      :     0.931405
      dz2     :     0.004987  d :     0.075655
      dxz     :     0.018873
      dyz     :     0.011828
      dx2y2   :     0.017207
      dxy     :     0.022759
      f0      :     0.001570  f :     0.007892
      f+1     :     0.000563
      f-1     :     0.000663
      f+2     :     0.001225
      f-2     :     0.000288
      f+3     :     0.001491
      f-3     :     0.002091
  4 H s       :     0.863301  s :     0.863301
      pz      :     0.005183  p :     0.022572
      px      :     0.006608
      py      :     0.010780
  5 H s       :     0.863812  s :     0.863812
      pz      :     0.005183  p :     0.022573
      px      :     0.006820
      py      :     0.010569
  6 S s       :     5.716304  s :     5.716304
      pz      :     3.546816  p :     9.936988
      px      :     2.953617
      py      :     3.436555
      dz2     :     0.020205  d :     0.233482
      dxz     :     0.070751
      dyz     :     0.023847
      dx2y2   :     0.037392
      dxy     :     0.081286
      f0      :     0.002217  f :     0.024224
      f+1     :     0.002256
      f-1     :     0.001584
      f+2     :     0.000338
      f-2     :     0.006224
      f+3     :     0.005925
      f-3     :     0.005682
  7 H s       :     0.815822  s :     0.815822
      pz      :     0.005557  p :     0.023105
      px      :     0.013778
      py      :     0.003770
  8 H s       :     0.816881  s :     0.816881
      pz      :     0.005552  p :     0.023125
      px      :     0.013705
      py      :     0.003867


                     *******************************
                     * LOEWDIN POPULATION ANALYSIS *
                     *******************************

----------------------
LOEWDIN ATOMIC CHARGES
----------------------
   0 C :   -0.429972
   1 C :   -0.215469
   2 C :   -0.429750
   3 C :   -0.215436
   4 H :    0.136266
   5 H :    0.136264
   6 S :    0.755374
   7 H :    0.131415
   8 H :    0.131309

-------------------------------
LOEWDIN REDUCED ORBITAL CHARGES
-------------------------------
  0 C s       :     2.852792  s :     2.852792
      pz      :     1.021549  p :     3.140938
      px      :     1.025083
      py      :     1.094305
      dz2     :     0.029030  d :     0.392565
      dxz     :     0.026357
      dyz     :     0.084489
      dx2y2   :     0.114519
      dxy     :     0.138170
      f0      :     0.002910  f :     0.043678
      f+1     :     0.003974
      f-1     :     0.004011
      f+2     :     0.001909
      f-2     :     0.008379
      f+3     :     0.009940
      f-3     :     0.012556
  1 C s       :     2.786149  s :     2.786149
      pz      :     0.930608  p :     2.985637
      px      :     1.030679
      py      :     1.024350
      dz2     :     0.027790  d :     0.397780
      dxz     :     0.063288
      dyz     :     0.037324
      dx2y2   :     0.122122
      dxy     :     0.147256
      f0      :     0.003033  f :     0.045904
      f+1     :     0.003952
      f-1     :     0.004022
      f+2     :     0.007871
      f-2     :     0.002434
      f+3     :     0.008398
      f-3     :     0.016193
  2 C s       :     2.852778  s :     2.852778
      pz      :     1.021444  p :     3.140705
      px      :     1.024813
      py      :     1.094448
      dz2     :     0.029026  d :     0.392587
      dxz     :     0.027265
      dyz     :     0.083573
      dx2y2   :     0.112098
      dxy     :     0.140624
      f0      :     0.002910  f :     0.043680
      f+1     :     0.003976
      f-1     :     0.004009
      f+2     :     0.002210
      f-2     :     0.008077
      f+3     :     0.010192
      f-3     :     0.012307
  3 C s       :     2.786155  s :     2.786155
      pz      :     0.930605  p :     2.985617
      px      :     1.029639
      py      :     1.025373
      dz2     :     0.027790  d :     0.397759
      dxz     :     0.061936
      dyz     :     0.038669
      dx2y2   :     0.120305
      dxy     :     0.149058
      f0      :     0.003034  f :     0.045905
      f+1     :     0.003939
      f-1     :     0.004035
      f+2     :     0.008159
      f-2     :     0.002148
      f+3     :     0.008588
      f-3     :     0.016002
  4 H s       :     0.803610  s :     0.803610
      pz      :     0.014398  p :     0.060125
      px      :     0.017813
      py      :     0.027914
  5 H s       :     0.803608  s :     0.803608
      pz      :     0.014397  p :     0.060128
      px      :     0.018288
      py      :     0.027443
  6 S s       :     5.102918  s :     5.102918
      pz      :     3.392083  p :     9.659125
      px      :     2.919434
      py      :     3.347607
      dz2     :     0.036462  d :     0.414100
      dxz     :     0.115577
      dyz     :     0.030510
      dx2y2   :     0.101218
      dxy     :     0.130333
      f0      :     0.003676  f :     0.068484
      f+1     :     0.004955
      f-1     :     0.003291
      f+2     :     0.000148
      f-2     :     0.017180
      f+3     :     0.021078
      f-3     :     0.018156
  7 H s       :     0.803845  s :     0.803845
      pz      :     0.015927  p :     0.064740
      px      :     0.037196
      py      :     0.011616
  8 H s       :     0.803966  s :     0.803966
      pz      :     0.015923  p :     0.064726
      px      :     0.036979
      py      :     0.011823


                      *****************************
                      * MAYER POPULATION ANALYSIS *
                      *****************************

  NA   - Mulliken gross atomic population
  ZA   - Total nuclear charge
  QA   - Mulliken gross atomic charge
  VA   - Mayer's total valence
  BVA  - Mayer's bonded valence
  FA   - Mayer's free valence

  ATOM       NA         ZA         QA         VA         BVA        FA
  0 C      6.1851     6.0000    -0.1851     3.9335     3.9335    -0.0000
  1 C      6.1350     6.0000    -0.1350     3.9446     3.9446     0.0000
  2 C      6.1835     6.0000    -0.1835     3.9340     3.9340    -0.0000
  3 C      6.1341     6.0000    -0.1341     3.9444     3.9444    -0.0000
  4 H      0.8859     1.0000     0.1141     0.9729     0.9729     0.0000
  5 H      0.8864     1.0000     0.1136     0.9731     0.9731     0.0000
  6 S     15.9110    16.0000     0.0890     2.9049     2.9049     0.0000
  7 H      0.8389     1.0000     0.1611     0.9677     0.9677    -0.0000
  8 H      0.8400     1.0000     0.1600     0.9682     0.9682    -0.0000

  Mayer bond orders larger than 0.100000
B(  0-C ,  1-C ) :   1.5490 B(  0-C ,  6-S ) :   1.3332 B(  0-C ,  7-H ) :   0.9345
B(  1-C ,  3-C ) :   1.3270 B(  1-C ,  4-H ) :   0.9604 B(  2-C ,  3-C ) :   1.5485
B(  2-C ,  6-S ) :   1.3343 B(  2-C ,  8-H ) :   0.9349 B(  3-C ,  5-H ) :   0.9609


-------
TIMINGS
-------

Total SCF time: 0 days 0 hours 0 min 21 sec

Total time                  ....      21.953 sec
Sum of individual times     ....      19.977 sec  ( 91.0%)

Fock matrix formation       ....      17.539 sec  ( 79.9%)
  Split-RI-J                ....       4.418 sec  ( 25.2% of F)
  Chain of spheres X        ....       4.062 sec  ( 23.2% of F)
  COS-X 1 center corr.      ....       0.000 sec  (  0.0% of F)
  XC integration            ....       3.316 sec  ( 18.9% of F)
    Basis function eval.    ....       0.056 sec  (  1.7% of XC)
    Density eval.           ....       0.101 sec  (  3.1% of XC)
    XC-Functional eval.     ....       0.044 sec  (  1.3% of XC)
    XC-Potential eval.      ....       0.107 sec  (  3.2% of XC)
Diagonalization             ....       0.389 sec  (  1.8%)
Density matrix formation    ....       0.099 sec  (  0.4%)
Population analysis         ....       0.174 sec  (  0.8%)
Initial guess               ....       0.235 sec  (  1.1%)
Orbital Transformation      ....       0.000 sec  (  0.0%)
Orbital Orthonormalization  ....       0.000 sec  (  0.0%)
DIIS solution               ....       0.153 sec  (  0.7%)
SOSCF solution              ....       0.198 sec  (  0.9%)
Grid generation             ....       1.191 sec  (  5.4%)


-------------------------------------------------------------------------------
                          DFT DISPERSION CORRECTION

                              DFTD3 V3.1  Rev 1
                          USING Becke-Johnson damping
-------------------------------------------------------------------------------
The B3LYP functional is recognized
Active option DFTDOPT                   ...         4

molecular C6(AA) [au] = 1429.391216


            DFT-D V3
 parameters
 s6 scaling factor         :     1.0000
 a1 scaling factor         :     0.3981
 s8 scaling factor         :     1.9889
 a2 scaling factor         :     4.4211
 ad hoc parameters k1-k3   :    16.0000     1.3333    -4.0000

 Edisp/kcal,au: -9.494270787601  -0.015130081963
 E6   /kcal   :  -4.118840875
 E8   /kcal   :  -5.375429913
 % E8         :  56.617617434

-------------------------   ----------------
Dispersion correction           -0.015130082
-------------------------   ----------------


-------------------------   --------------------
FINAL SINGLE POINT ENERGY      -552.938595114000
-------------------------   --------------------



           ************************************************************
           *        Program running with 24 parallel MPI-processes    *
           *              working on a common directory               *
           ************************************************************
------------------------------------------------------------------------------
                         ORCA SCF GRADIENT CALCULATION
------------------------------------------------------------------------------

Gradient of the Kohn-Sham DFT energy:
Kohn-Sham wavefunction type      ... RKS
Hartree-Fock exchange scaling    ...    0.200
Number of operators              ...    1
Number of atoms                  ...    9
Basis set dimensions             ...  185
Integral neglect threshold       ... 2.5e-11
Integral primitive cutoff        ... 2.5e-12

Nuclear repulsion gradient       ... done
One Electron Gradient            ... done
Pre-screening matrix             ... done
RI-J gradient                    ... done
COSX-gradient                    ... done
Exchange-correlation gradient    ... done
Dispersion correction            ... done

------------------
CARTESIAN GRADIENT
------------------

   1   C   :   -0.009516141    0.046124483    0.000000133
   2   C   :    0.001716022   -0.002198356   -0.000000016
   3   C   :    0.008585052    0.046223637    0.000000185
   4   C   :   -0.001699896   -0.002108221    0.000000572
   5   H   :   -0.000739150   -0.000361526    0.000000089
   6   H   :    0.000759224   -0.000343731    0.000000111
   7   S   :    0.000775421   -0.077009059    0.000000672
   8   H   :   -0.005478209   -0.005687959   -0.000000135
   9   H   :    0.005622762   -0.005522079   -0.000000151

Difference to translation invariance:
           :    0.0000250851   -0.0008828107    0.0000014593

Norm of the cartesian gradient     ...    0.1024709952
RMS gradient                       ...    0.0197205522
MAX gradient                       ...    0.0770090592

-------
TIMINGS
-------

Total SCF gradient time            ...        2.077 sec

One electron gradient       ....       0.016 sec  (  0.8%)
Prescreening matrices       ....       0.076 sec  (  3.6%)
RI-J Coulomb gradient       ....       0.507 sec  ( 24.4%)
COSX gradient               ....       0.445 sec  ( 21.4%)
XC gradient                 ....       0.240 sec  ( 11.5%)
------------------------------------------------------------------------------
                         ORCA GEOMETRY RELAXATION STEP
------------------------------------------------------------------------------

Reading the OPT-File                    .... done
Getting information on internals        .... done
Copying old internal coords+grads       .... done
Making the new internal coordinates     .... (new redundants).... done
Validating the new internal coordinates .... (new redundants).... done
Calculating the B-matrix                .... done
Calculating the G,G- and P matrices     .... done
Transforming gradient to internals      .... done
Projecting the internal gradient        .... done
Number of atoms                         ....   9
Number of internal coordinates          ....  38
Current Energy                          ....  -552.938595114 Eh
Current gradient norm                   ....     0.102470995 Eh/bohr
Maximum allowed component of the step   ....  0.300
Current trust radius                    ....  0.300
Evaluating the initial hessian          ....  (Almloef) done
Projecting the Hessian                  .... done
Forming the augmented Hessian           .... done
Diagonalizing the augmented Hessian     .... done
Last element of RFO vector              ....  0.988399677
Lowest eigenvalues of augmented Hessian:
 -0.011626270  0.014093210  0.018568222  0.019847248  0.022894258
Length of the computed step             ....  0.153657685
The final length of the internal step   ....  0.153657685
Converting the step to cartesian space:
 Initial RMS(Int)=    0.0249265680
Transforming coordinates:
 Iter   0:  RMS(Cart)=    0.0329691770 RMS(Int)=    2.0386854032
 Iter   1:  RMS(Cart)=    0.0009088728 RMS(Int)=    0.0006332780
 Iter   2:  RMS(Cart)=    0.0000243608 RMS(Int)=    0.0000160055
 Iter   3:  RMS(Cart)=    0.0000009259 RMS(Int)=    0.0000006799
 Iter   4:  RMS(Cart)=    0.0000000273 RMS(Int)=    0.0000000176
done
Storing new coordinates                 .... done

                                .--------------------.
          ----------------------|Geometry convergence|-------------------------
          Item                value                   Tolerance       Converged
          ---------------------------------------------------------------------
          RMS gradient        0.0124103991            0.0001000000      NO
          MAX gradient        0.0422612972            0.0003000000      NO
          RMS step            0.0249265680            0.0020000000      NO
          MAX step            0.0852008508            0.0040000000      NO
          ........................................................
          Max(Bonds)      0.0222      Max(Angles)    4.88
          Max(Dihed)        0.00      Max(Improp)    0.00
          ---------------------------------------------------------------------

The optimization has not yet converged - more geometry cycles are needed


    ---------------------------------------------------------------------------
                         Redundant Internal Coordinates
                            (Angstroem and degrees)

        Definition                    Value    dE/dq     Step     New-Value
    ----------------------------------------------------------------------------
     1. B(C   1,C   0)                1.3965  0.008914 -0.0077    1.3888
     2. B(C   3,C   1)                1.4223  0.016039 -0.0153    1.4070
     3. B(C   3,C   2)                1.3965  0.008885 -0.0077    1.3888
     4. B(H   4,C   1)                1.0818  0.000621 -0.0009    1.0809
     5. B(H   5,C   3)                1.0818  0.000626 -0.0009    1.0809
     6. B(S   6,C   2)                1.6577 -0.026573  0.0222    1.6798
     7. B(S   6,C   0)                1.6577 -0.026613  0.0222    1.6799
     8. B(H   7,C   0)                1.0815  0.004153 -0.0057    1.0758
     9. B(H   8,C   2)                1.0815  0.004188 -0.0058    1.0757
    10. A(S   6,C   0,H   7)          126.92  0.019540   -2.60    124.32
    11. A(C   1,C   0,H   7)          126.51  0.005996   -0.63    125.89
    12. A(C   1,C   0,S   6)          106.56 -0.025537    3.23    109.80
    13. A(C   0,C   1,C   3)          113.52  0.004394   -0.79    112.73
    14. A(C   0,C   1,H   4)          123.23 -0.002698    0.47    123.70
    15. A(C   3,C   1,H   4)          123.25 -0.001696    0.32    123.57
    16. A(C   3,C   2,H   8)          126.51  0.006037   -0.63    125.88
    17. A(S   6,C   2,H   8)          126.92  0.019530   -2.60    124.32
    18. A(C   3,C   2,S   6)          106.56 -0.025567    3.24    109.80
    19. A(C   2,C   3,H   5)          123.23 -0.002719    0.47    123.70
    20. A(C   1,C   3,H   5)          123.25 -0.001730    0.32    123.58
    21. A(C   1,C   3,C   2)          113.52  0.004449   -0.80    112.72
    22. A(C   0,S   6,C   2)           99.84  0.042261   -4.88     94.96
    23. D(C   3,C   1,C   0,S   6)      0.00 -0.000000    0.00      0.00
    24. D(C   3,C   1,C   0,H   7)    180.00 -0.000000    0.00    180.00
    25. D(H   4,C   1,C   0,H   7)      0.00 -0.000000    0.00      0.00
    26. D(H   4,C   1,C   0,S   6)    180.00 -0.000000    0.00    180.00
    27. D(C   2,C   3,C   1,H   4)    180.00 -0.000000    0.00    180.00
    28. D(H   5,C   3,C   1,C   0)    180.00  0.000000   -0.00    180.00
    29. D(H   5,C   3,C   2,H   8)      0.00  0.000000   -0.00     -0.00
    30. D(C   1,C   3,C   2,H   8)    180.00  0.000000   -0.00    180.00
    31. D(C   2,C   3,C   1,C   0)      0.00 -0.000000    0.00      0.00
    32. D(H   5,C   3,C   2,S   6)    180.00  0.000000   -0.00    180.00
    33. D(C   1,C   3,C   2,S   6)      0.00  0.000000   -0.00     -0.00
    34. D(H   5,C   3,C   1,H   4)      0.00  0.000000   -0.00     -0.00
    35. D(C   0,S   6,C   2,C   3)      0.00 -0.000000    0.00      0.00
    36. D(C   2,S   6,C   0,H   7)    180.00  0.000000   -0.00    180.00
    37. D(C   2,S   6,C   0,C   1)      0.00  0.000000   -0.00     -0.00
    38. D(C   0,S   6,C   2,H   8)    180.00 -0.000000    0.00    180.00
    ----------------------------------------------------------------------------

         *************************************************************
         *                GEOMETRY OPTIMIZATION CYCLE   2            *
         *************************************************************
---------------------------------
CARTESIAN COORDINATES (ANGSTROEM)
---------------------------------
  C     -2.907664    1.517715   -0.000000
  C     -2.358554    0.242163   -0.000002
  C     -0.429983    1.543939    0.000000
  C     -0.951906    0.257000   -0.000004
  H     -2.947058   -0.664483    0.000001
  H     -0.344343   -0.636978   -0.000001
  S     -1.680809    2.665499   -0.000009
  H     -3.957552    1.752221    0.000006
  H      0.614679    1.800564    0.000008

----------------------------
CARTESIAN COORDINATES (A.U.)
----------------------------
  NO LB      ZA    FRAG     MASS         X           Y           Z
   0 C     6.0000    0    12.011   -5.494688    2.868065   -0.000000
   1 C     6.0000    0    12.011   -4.457021    0.457622   -0.000003
   2 C     6.0000    0    12.011   -0.812551    2.917623    0.000000
   3 C     6.0000    0    12.011   -1.798842    0.485660   -0.000007
   4 H     1.0000    0     1.008   -5.569133   -1.255690    0.000002
   5 H     1.0000    0     1.008   -0.650714   -1.203714   -0.000002
   6 S    16.0000    0    32.060   -3.176268    5.037062   -0.000017
   7 H     1.0000    0     1.008   -7.478689    3.311218    0.000011
   8 H     1.0000    0     1.008    1.161574    3.402573    0.000015

--------------------------------
INTERNAL COORDINATES (ANGSTROEM)
--------------------------------
 C      0   0   0     0.000000000000     0.00000000     0.00000000
 C      1   0   0     1.388723534437     0.00000000     0.00000000
 C      2   1   0     2.326801431513    79.27213196     0.00000000
 C      3   2   1     1.388746345802    33.90563950   180.00015091
 H      2   1   3     1.080899732851   123.72105164   179.99974328
 H      4   3   2     1.080893179692   123.72409395   180.00042619
 S      3   2   1     1.680017591885    75.90033334     0.00000000
 H      1   2   3     1.075759376980   125.88239344   180.00037799
 H      3   2   1     1.075720736181   159.78242285   179.99883929

---------------------------
INTERNAL COORDINATES (A.U.)
---------------------------
 C      0   0   0     0.000000000000     0.00000000     0.00000000
 C      1   0   0     2.624307155818     0.00000000     0.00000000
 C      2   1   0     4.397017473576    79.27213196     0.00000000
 C      3   2   1     2.624350263050    33.90563950   180.00015091
 H      2   1   3     2.042604473317   123.72105164   179.99974328
 H      4   3   2     2.042592089641   123.72409395   180.00042619
 S      3   2   1     3.174773148832    75.90033334     0.00000000
 H      1   2   3     2.032890608490   125.88239344   180.00037799
 H      3   2   1     2.032817587963   159.78242285   179.99883929



           ************************************************************
           *        Program running with 24 parallel MPI-processes    *
           *              working on a common directory               *
           ************************************************************
 One Electron integrals                  ... done
 Pre-screening matrix                    ... done


           ************************************************************
           *        Program running with 24 parallel MPI-processes    *
           *              working on a common directory               *
           ************************************************************

Diagonalization of the overlap matrix:
Smallest eigenvalue                        ... 9.781e-05
Time for diagonalization                   ...    0.010 sec
Threshold for overlap eigenvalues          ... 1.000e-08
Number of eigenvalues below threshold      ... 0
Time for construction of square roots      ...    0.280 sec
Total time needed                          ...    0.290 sec

-------------------
DFT GRID GENERATION
-------------------

General Integration Accuracy     IntAcc      ...  4.340
Radial Grid Type                 RadialGrid  ... Gauss-Chebyshev
Angular Grid (max. acc.)         AngularGrid ... Lebedev-110
Angular grid pruning method      GridPruning ... 3 (G Style)
Weight generation scheme         WeightScheme... Becke
Basis function cutoff            BFCut       ...    1.0000e-11
Integration weight cutoff        WCut        ...    1.0000e-14
Grids for H and He will be reduced by one unit

# of grid points (after initial pruning)     ...  11606 (   0.0 sec)
# of grid points (after weights+screening)   ...  11063 (   0.0 sec)
nearest neighbour list constructed           ...    0.0 sec
Grid point re-assignment to atoms done       ...    0.0 sec
Grid point division into batches done        ...    0.0 sec
Reduced shell lists constructed in    0.0 sec

Total number of grid points                  ...    11063
Total number of batches                      ...      179
Average number of points per batch           ...       61
Average number of grid points per atom       ...     1229
Average number of shells per batch           ...    55.78 (76.41%)
Average number of basis functions per batch  ...   151.78 (82.04%)
Average number of large shells per batch     ...    48.67 (87.25%)
Average number of large basis fcns per batch ...   135.78 (89.46%)
Maximum spatial batch extension              ...   3.22,  3.71, 19.13 au
Average spatial batch extension              ...   0.10,  0.11,  0.29 au

Time for grid setup =    0.103 sec

--------------------
COSX GRID GENERATION
--------------------

General Integration Accuracy     IntAcc      ...  3.340
Radial Grid Type                 RadialGrid  ... Gauss-Chebyshev
Angular Grid (max. acc.)         AngularGrid ... Lebedev-50
Angular grid pruning method      GridPruning ... 3 (G Style)
Weight generation scheme         WeightScheme... Becke
Basis function cutoff            BFCut       ...    1.0000e-11
Integration weight cutoff        WCut        ...    1.0000e-14
Grids for H and He will be reduced by one unit

# of grid points (after initial pruning)     ...   4306 (   0.0 sec)
# of grid points (after weights+screening)   ...   4132 (   0.0 sec)
nearest neighbour list constructed           ...    0.0 sec
Grid point re-assignment to atoms done       ...    0.0 sec
Grid point division into batches done        ...    0.0 sec
Reduced shell lists constructed in    0.0 sec

Total number of grid points                  ...     4132
Total number of batches                      ...       69
Average number of points per batch           ...       59
Average number of grid points per atom       ...      459
Average number of shells per batch           ...    49.25 (67.47%)
Average number of basis functions per batch  ...   133.25 (72.03%)
Average number of large shells per batch     ...    45.25 (91.88%)
Average number of large basis fcns per batch ...   124.75 (93.62%)
Maximum spatial batch extension              ...   3.61,  3.77, 16.61 au
Average spatial batch extension              ...   0.13,  0.14,  0.51 au

Overlap Fitting                  UseSFitting ... on
Constructing numerical overlap ... done (      0.0 sec)
Inverting numerical overlap    ... done (      0.0 sec)
Obtaining analytic overlap     ... done (      0.0 sec)
Final contraction and storage  ... done (      0.0 sec)


General Integration Accuracy     IntAcc      ...  3.670
Radial Grid Type                 RadialGrid  ... Gauss-Chebyshev
Angular Grid (max. acc.)         AngularGrid ... Lebedev-50
Angular grid pruning method      GridPruning ... 3 (G Style)
Weight generation scheme         WeightScheme... Becke
Basis function cutoff            BFCut       ...    1.0000e-11
Integration weight cutoff        WCut        ...    1.0000e-14
Grids for H and He will be reduced by one unit

# of grid points (after initial pruning)     ...   5438 (   0.0 sec)
# of grid points (after weights+screening)   ...   5209 (   0.0 sec)
nearest neighbour list constructed           ...    0.0 sec
Grid point re-assignment to atoms done       ...    0.0 sec
Grid point division into batches done        ...    0.0 sec
Reduced shell lists constructed in    0.0 sec

Total number of grid points                  ...     5209
Total number of batches                      ...       88
Average number of points per batch           ...       59
Average number of grid points per atom       ...      579
Average number of shells per batch           ...    50.80 (69.59%)
Average number of basis functions per batch  ...   139.60 (75.46%)
Average number of large shells per batch     ...    47.00 (92.52%)
Average number of large basis fcns per batch ...   131.40 (94.13%)
Maximum spatial batch extension              ...   3.53,  3.81, 17.91 au
Average spatial batch extension              ...   0.13,  0.13,  0.45 au

Overlap Fitting                  UseSFitting ... on
Constructing numerical overlap ... done (      0.0 sec)
Inverting numerical overlap    ... done (      0.0 sec)
Obtaining analytic overlap     ... done (      0.0 sec)
Final contraction and storage  ... done (      0.0 sec)


General Integration Accuracy     IntAcc      ...  4.010
Radial Grid Type                 RadialGrid  ... Gauss-Chebyshev
Angular Grid (max. acc.)         AngularGrid ... Lebedev-110
Angular grid pruning method      GridPruning ... 3 (G Style)
Weight generation scheme         WeightScheme... Becke
Basis function cutoff            BFCut       ...    1.0000e-11
Integration weight cutoff        WCut        ...    1.0000e-14
Grids for H and He will be reduced by one unit

# of grid points (after initial pruning)     ...  10176 (   0.0 sec)
# of grid points (after weights+screening)   ...   9713 (   0.0 sec)
nearest neighbour list constructed           ...    0.0 sec
Grid point re-assignment to atoms done       ...    0.0 sec
Grid point division into batches done        ...    0.0 sec
Reduced shell lists constructed in    0.0 sec

Total number of grid points                  ...     9713
Total number of batches                      ...      156
Average number of points per batch           ...       62
Average number of grid points per atom       ...     1079
Average number of shells per batch           ...    53.50 (73.29%)
Average number of basis functions per batch  ...   147.75 (79.86%)
Average number of large shells per batch     ...    48.00 (89.72%)
Average number of large basis fcns per batch ...   134.25 (90.86%)
Maximum spatial batch extension              ...   3.38,  3.53, 18.10 au
Average spatial batch extension              ...   0.11,  0.11,  0.30 au

Overlap Fitting                  UseSFitting ... on
Constructing numerical overlap ... done (      0.0 sec)
Inverting numerical overlap    ... done (      0.0 sec)
Obtaining analytic overlap     ... done (      0.0 sec)
Final contraction and storage  ... done (      0.0 sec)

Time for X-Grid setup             =    0.610 sec
--------------
SCF ITERATIONS
--------------
ITER       Energy         Delta-E        Max-DP      RMS-DP      [F,P]     Damp
               ***  Starting incremental Fock matrix formation  ***
  0   -552.9296138587   0.000000000000 0.00210404  0.00009332  0.0522260 0.7000
                      *** Initiating the SOSCF procedure ***
                      *** Re-Reading the Fockian ***
                      *** Removing any level shift ***
ITER      Energy       Delta-E        Grad      Rot      Max-DP    RMS-DP
  1   -552.93003466  -0.0004207967  0.001605  0.001605  0.008359  0.000277
               *** Restarting incremental Fock matrix formation ***
  2   -552.93109355  -0.0010588922  0.001722  0.007297  0.004070  0.000110
  3   -552.93107901   0.0000145391  0.002541  0.003734  0.001402  0.000052
  4   -552.93114077  -0.0000617587  0.000218  0.000473  0.000626  0.000019
  5   -552.93114060   0.0000001643  0.000245  0.000288  0.000253  0.000008
  6   -552.93114210  -0.0000014948  0.000041  0.000099  0.000116  0.000004
  7   -552.93114211  -0.0000000090  0.000025  0.000029  0.000067  0.000001
  8   -552.93114213  -0.0000000193  0.000005  0.000008  0.000024  0.000000
  9   -552.93114213   0.0000000008  0.000004  0.000004  0.000008  0.000000
                 **** Energy Check signals convergence ****
              ***Rediagonalizing the Fockian in SOSCF/NRSCF***

               *****************************************************
               *                     SUCCESS                       *
               *           SCF CONVERGED AFTER  10 CYCLES          *
               *****************************************************

Setting up the final grid:

General Integration Accuracy     IntAcc      ...  4.670
Radial Grid Type                 RadialGrid  ... Gauss-Chebyshev
Angular Grid (max. acc.)         AngularGrid ... Lebedev-302
Angular grid pruning method      GridPruning ... 3 (G Style)
Weight generation scheme         WeightScheme... Becke
Basis function cutoff            BFCut       ...    1.0000e-11
Integration weight cutoff        WCut        ...    1.0000e-14
Grids for H and He will be reduced by one unit

# of grid points (after initial pruning)     ...  45270 (   0.0 sec)
# of grid points (after weights+screening)   ...  42793 (   0.0 sec)
nearest neighbour list constructed           ...    0.0 sec
Grid point re-assignment to atoms done       ...    0.0 sec
Grid point division into batches done        ...    0.2 sec
Reduced shell lists constructed in    0.2 sec

Total number of grid points                  ...    42793
Total number of batches                      ...      675
Average number of points per batch           ...       63
Average number of grid points per atom       ...     4755
Average number of shells per batch           ...    57.03 (78.13%)
Average number of basis functions per batch  ...   156.30 (84.49%)
Average number of large shells per batch     ...    49.23 (86.32%)
Average number of large basis fcns per batch ...   136.03 (87.03%)
Maximum spatial batch extension              ...   3.11,  4.02, 16.53 au
Average spatial batch extension              ...   0.07,  0.09,  0.12 au

Final grid set up in    0.3 sec
Final integration                            ... done (   0.2 sec)
Change in XC energy                          ...     0.000217002
Integrated number of electrons               ...    44.000033320
Previous integrated no of electrons          ...    44.005361780
Old exchange energy                            =     -9.439518721 Eh
New exchange energy                            =     -9.439820649 Eh
Exchange energy change after final integration =     -0.000301929 Eh
Total energy after final integration           =   -552.931227058 Eh
Final COS-X integration done in                =     0.444 sec
Total Energy       :         -552.93122706 Eh          -15046.02361 eV
  Last Energy change         ...   -6.3666e-09  Tolerance :   1.0000e-08
[...]
Exchange-correlation Hessian                     ... done   (      1.5 sec)
Dispersion correction in the Hessian             ... done   (      0.2 sec)
Dipol derivatives                                ... done   (      0.4 sec)

Total SCF Hessian time: 0 days 0 hours 1 min 23 sec

Writing the Hessian file to the disk             ... done


Maximum memory used throughout the entire calculation: 188.6 MB

-----------------------
VIBRATIONAL FREQUENCIES
-----------------------

Scaling factor for frequencies =  1.000000000  (already applied!)

   0:         0.00 cm**-1
   1:         0.00 cm**-1
   2:         0.00 cm**-1
   3:         0.00 cm**-1
   4:         0.00 cm**-1
   5:         0.00 cm**-1
   6:       462.81 cm**-1
   7:       579.54 cm**-1
   8:       620.78 cm**-1
   9:       693.13 cm**-1
  10:       723.55 cm**-1
  11:       758.73 cm**-1
  12:       843.82 cm**-1
  13:       882.16 cm**-1
  14:       884.38 cm**-1
  15:       916.95 cm**-1
  16:      1059.20 cm**-1
  17:      1105.41 cm**-1
  18:      1105.73 cm**-1
  19:      1282.32 cm**-1
  20:      1395.79 cm**-1
  21:      1437.98 cm**-1
  22:      1547.75 cm**-1
  23:      3201.42 cm**-1
  24:      3214.32 cm**-1
  25:      3244.45 cm**-1
  26:      3247.03 cm**-1


------------
NORMAL MODES
------------

These modes are the Cartesian displacements weighted by the diagonal matrix
M(i,i)=1/sqrt(m[i]) where m[i] is the mass of the displaced atom
Thus, these vectors are normalized but *not* orthogonal

                  0          1          2          3          4          5
      0       0.000000   0.000000   0.000000   0.000000   0.000000   0.000000
      1       0.000000   0.000000   0.000000   0.000000   0.000000   0.000000
      2       0.000000   0.000000   0.000000   0.000000   0.000000   0.000000
      3       0.000000   0.000000   0.000000   0.000000   0.000000   0.000000
      4       0.000000   0.000000   0.000000   0.000000   0.000000   0.000000
      5       0.000000   0.000000   0.000000   0.000000   0.000000   0.000000
      6       0.000000   0.000000   0.000000   0.000000   0.000000   0.000000
      7       0.000000   0.000000   0.000000   0.000000   0.000000   0.000000
      8       0.000000   0.000000   0.000000   0.000000   0.000000   0.000000
      9       0.000000   0.000000   0.000000   0.000000   0.000000   0.000000
     10       0.000000   0.000000   0.000000   0.000000   0.000000   0.000000
     11       0.000000   0.000000   0.000000   0.000000   0.000000   0.000000
     12       0.000000   0.000000   0.000000   0.000000   0.000000   0.000000
     13       0.000000   0.000000   0.000000   0.000000   0.000000   0.000000
     14       0.000000   0.000000   0.000000   0.000000   0.000000   0.000000
     15       0.000000   0.000000   0.000000   0.000000   0.000000   0.000000
     16       0.000000   0.000000   0.000000   0.000000   0.000000   0.000000
     17       0.000000   0.000000   0.000000   0.000000   0.000000   0.000000
     18       0.000000   0.000000   0.000000   0.000000   0.000000   0.000000
     19       0.000000   0.000000   0.000000   0.000000   0.000000   0.000000
     20       0.000000   0.000000   0.000000   0.000000   0.000000   0.000000
     21       0.000000   0.000000   0.000000   0.000000   0.000000   0.000000
     22       0.000000   0.000000   0.000000   0.000000   0.000000   0.000000
     23       0.000000   0.000000   0.000000   0.000000   0.000000   0.000000
     24       0.000000   0.000000   0.000000   0.000000   0.000000   0.000000
     25       0.000000   0.000000   0.000000   0.000000   0.000000   0.000000
     26       0.000000   0.000000   0.000000   0.000000   0.000000   0.000000
                  6          7          8          9         10         11
      0       0.000001   0.000000   0.191822   0.000002   0.000003  -0.141290
      1       0.000000  -0.000001  -0.206231  -0.000000   0.000002  -0.253932
      2       0.338944   0.185987   0.000001  -0.074340   0.044890   0.000004
      3      -0.000001  -0.000001   0.008508  -0.000001   0.000002  -0.174772
      4       0.000002  -0.000001  -0.285251  -0.000001  -0.000000  -0.281488
      5      -0.147241  -0.242094   0.000002  -0.078769   0.049801   0.000004
      6      -0.000001   0.000000  -0.187641   0.000002  -0.000002  -0.145442
      7       0.000000   0.000001  -0.210080   0.000000  -0.000001   0.250573
      8       0.338412  -0.186429   0.000001   0.074318   0.045032  -0.000001
      9       0.000001  -0.000001  -0.002532  -0.000001  -0.000001  -0.180625
     10       0.000002   0.000001  -0.285246   0.000001  -0.000002   0.278038
     11      -0.146576   0.242269   0.000003   0.078691   0.049837  -0.000002
     12       0.000001  -0.000002  -0.168477  -0.000000  -0.000005   0.140328
     13       0.000000  -0.000001  -0.173144  -0.000001   0.000004  -0.495934
     14      -0.295411  -0.634127   0.000013   0.167006  -0.489922   0.000002
     15      -0.000001  -0.000001   0.172267   0.000000   0.000003   0.128832
     16       0.000001   0.000000  -0.169277   0.000002   0.000001   0.498354
     17      -0.294007   0.634831   0.000015  -0.166431  -0.490375  -0.000022
     18       0.000000   0.000001  -0.004200  -0.000001  -0.000001   0.237984
     19      -0.000002  -0.000000   0.407297  -0.000000   0.000001   0.002556
     20      -0.157495   0.000138  -0.000005  -0.000007  -0.008428  -0.000000
     21       0.000002  -0.000002   0.130332   0.000009  -0.000002  -0.093467
     22      -0.000000  -0.000002  -0.425462   0.000006  -0.000003  -0.061228
     23       0.514057   0.063158   0.000019   0.679014  -0.504795  -0.000011
     24      -0.000002  -0.000002  -0.121550   0.000010   0.000004  -0.093485
     25      -0.000000   0.000002  -0.427945  -0.000006  -0.000003   0.058644
     26       0.514453  -0.065060   0.000018  -0.678162  -0.505582  -0.000023
                 12         13         14         15         16         17
      0      -0.338784  -0.000013   0.282680  -0.000001  -0.075992  -0.013461
      1      -0.125486   0.000001  -0.014739  -0.000001   0.022811   0.017044
      2       0.000002   0.069355   0.000011  -0.046104   0.000001   0.000001
      3      -0.029627   0.000008  -0.154805   0.000002  -0.171188   0.008914
      4       0.046014   0.000009  -0.162280   0.000001  -0.083840  -0.053294
      5       0.000002  -0.075176  -0.000011   0.112536  -0.000000  -0.000000
      6       0.340257  -0.000016   0.283944  -0.000002   0.075482   0.017216
      7      -0.118805  -0.000001   0.020167   0.000000   0.024453   0.021260
      8       0.000002   0.069341   0.000013   0.046364   0.000001   0.000001
      9       0.029775   0.000008  -0.158049   0.000000   0.172924  -0.010508
     10       0.045314  -0.000008   0.159096   0.000000  -0.080219  -0.054987
     11       0.000001  -0.074987  -0.000016  -0.112767  -0.000001  -0.000000
     12       0.287695   0.000014  -0.215126  -0.000002  -0.529022   0.378289
     13      -0.171040   0.000006  -0.117932   0.000001   0.134257  -0.301354
     14      -0.000009   0.495223   0.000071  -0.647650  -0.000001  -0.000002
     15      -0.283304   0.000008  -0.219132  -0.000004   0.526127  -0.399418
     16      -0.178656  -0.000008   0.112269  -0.000003   0.145417  -0.327988
     17      -0.000005   0.493134   0.000105   0.648980   0.000005  -0.000003
     18      -0.000890   0.000005  -0.106562   0.000001  -0.000108   0.000385
     19       0.087058   0.000000  -0.000876  -0.000000   0.009889   0.015684
     20      -0.000002   0.004367   0.000001  -0.000008   0.000000  -0.000000
     21      -0.400113  -0.000024   0.394860   0.000001   0.015584   0.104445
     22      -0.303295  -0.000024   0.381726  -0.000001   0.399083   0.461410
     23      -0.000008  -0.495622  -0.000107   0.253969  -0.000005  -0.000004
     24       0.404710  -0.000017   0.404817   0.000000  -0.023875  -0.121311
     25      -0.293264   0.000014  -0.374941   0.000001   0.398389   0.502920
     26      -0.000011  -0.494994  -0.000063  -0.255379  -0.000006  -0.000004
                 18         19         20         21         22         23
      0      -0.053956   0.040138   0.007032   0.132290   0.071651   0.010205
      1       0.048249   0.109427  -0.208985  -0.109611  -0.228609  -0.001773
      2       0.000001  -0.000001   0.000001  -0.000001  -0.000000  -0.000000
      3       0.035402  -0.060843   0.075351  -0.320348  -0.133284  -0.031433
      4      -0.019782  -0.009232   0.121641   0.163724   0.284110  -0.050827
      5       0.000000   0.000000   0.000000   0.000002   0.000000   0.000000
      6      -0.051692   0.042444  -0.002570  -0.130161   0.066376   0.009943
      7      -0.047870  -0.108574  -0.209338  -0.112874   0.229345   0.001947
      8      -0.000001   0.000001   0.000000  -0.000001   0.000000   0.000000
      9       0.034206  -0.060853  -0.077840   0.317224  -0.126533  -0.031951
     10       0.016076   0.007960   0.120314   0.171267  -0.286091   0.049398
     11      -0.000000  -0.000000   0.000000   0.000002  -0.000001   0.000000
     12       0.368814   0.430405  -0.162554   0.423103   0.526906   0.380829
     13      -0.240356  -0.333534   0.307413  -0.330170  -0.117423   0.583078
     14      -0.000003  -0.000004   0.000003  -0.000008  -0.000002  -0.000001
     15       0.331218   0.422916   0.155214  -0.418396   0.523601   0.387082
     16       0.221407   0.342207   0.310519  -0.340059   0.128370  -0.566317
     17       0.000002   0.000004   0.000002  -0.000007   0.000005  -0.000001
     18      -0.013883  -0.005283  -0.000164   0.000119  -0.000310   0.000337
     19       0.000511  -0.000048   0.014355  -0.009656  -0.000014   0.000006
     20      -0.000000  -0.000000  -0.000000   0.000000   0.000000   0.000000
     21       0.084406  -0.105221   0.220705   0.136978   0.204580  -0.133511
     22       0.577273  -0.418647   0.515588  -0.180265   0.109204   0.034278
     23      -0.000003   0.000003  -0.000007  -0.000005  -0.000004   0.000001
     24       0.086539  -0.114002  -0.231658  -0.133626   0.205976  -0.129939
     25      -0.534932   0.416478   0.511454  -0.182975  -0.104872  -0.036266
     26       0.000003  -0.000002  -0.000006  -0.000005   0.000003  -0.000001
                  24         25         26
      0       0.016069   0.060300   0.056175
      1      -0.002556  -0.019462  -0.017397
      2      -0.000000  -0.000001  -0.000000
      3      -0.034207   0.004586   0.010113
      4      -0.048812   0.014406   0.017753
      5       0.000000   0.000000  -0.000000
      6      -0.016126   0.055615  -0.060070
      7      -0.002906   0.019294  -0.020047
      8      -0.000000   0.000001  -0.000001
      9       0.035734   0.004079  -0.010834
     10      -0.048862  -0.012934   0.018559
     11      -0.000000  -0.000000   0.000000
     12       0.369864  -0.074903  -0.108297
     13       0.555918  -0.118994  -0.165497
     14      -0.000001   0.000000   0.000000
     15      -0.387625  -0.068657   0.117335
     16       0.556908   0.104625  -0.171627
     17       0.000000  -0.000000  -0.000000
     18      -0.000005  -0.000345   0.000020
     19       0.000217  -0.000027  -0.000647
     20       0.000000  -0.000000   0.000000
     21      -0.199846  -0.690750  -0.625031
     22       0.052293   0.188258   0.171803
     23       0.000001   0.000005   0.000004
     24       0.200240  -0.639166   0.670358
     25       0.056890  -0.188590   0.199375
     26       0.000002  -0.000005   0.000005


-----------
IR SPECTRUM
-----------

 Mode    freq (cm**-1)   T**2         TX         TY         TZ
-------------------------------------------------------------------
   6:       462.81    0.756131  (  0.000001  -0.000108  -0.869558)
   7:       579.54    0.000004  ( -0.000907  -0.000095  -0.001803)
   8:       620.78    0.109445  (  0.002936  -0.330811   0.000064)
   9:       693.13    0.000131  (  0.000353  -0.000084   0.011419)
  10:       723.55  129.777428  (  0.000258   0.000304 -11.391990)
  11:       758.73    0.542679  (  0.736665   0.002032  -0.000125)
  12:       843.82   21.667508  (  0.051379  -4.654553  -0.000028)
  13:       882.16    0.347179  ( -0.000155  -0.000290  -0.589219)
  14:       884.38    1.163899  ( -1.078608  -0.022415  -0.000034)
  15:       916.95    0.000000  (  0.000119   0.000455  -0.000427)
  16:      1059.20    2.782188  ( -0.018585   1.667886  -0.000021)
  17:      1105.41    3.648832  ( -0.105543   1.907274  -0.000030)
  18:      1105.73    4.307908  (  2.073247   0.097745  -0.000002)
  19:      1282.32    9.298717  (  3.049257   0.027315   0.000001)
  20:      1395.79    0.627104  (  0.008171  -0.791857   0.000040)
  21:      1437.98    7.878111  (  0.023536  -2.806699  -0.000045)
  22:      1547.75    0.023368  ( -0.152751  -0.005957  -0.000002)
  23:      3201.42    3.301757  ( -1.816635  -0.039944  -0.000004)
  24:      3214.32    4.002179  (  0.033398  -2.000266   0.000001)
  25:      3244.45    0.061472  (  0.243585   0.046246  -0.000002)
  26:      3247.03    1.287665  ( -0.026718   1.134439  -0.000001)

The first frequency considered to be a vibration is 6
The total number of vibrations considered is 21


--------------------------
THERMOCHEMISTRY AT 298.15K
--------------------------

Temperature         ... 298.15 K
Pressure            ... 1.00 atm
Total Mass          ... 84.14 AMU

Throughout the following assumptions are being made:
  (1) The electronic state is orbitally nondegenerate
  (2) There are no thermally accessible electronically excited states
  (3) Hindered rotations indicated by low frequency modes are not
      treated as such but are treated as vibrations and this may
      cause some error
  (4) All equations used are the standard statistical mechanics
      equations for an ideal gas
  (5) All vibrations are strictly harmonic

freq.     462.81  E(vib)   ...       0.16
freq.     579.54  E(vib)   ...       0.11
freq.     620.78  E(vib)   ...       0.09
freq.     693.13  E(vib)   ...       0.07
freq.     723.55  E(vib)   ...       0.06
freq.     758.73  E(vib)   ...       0.06
freq.     843.82  E(vib)   ...       0.04
freq.     882.16  E(vib)   ...       0.04
freq.     884.38  E(vib)   ...       0.04
freq.     916.95  E(vib)   ...       0.03
freq.    1059.20  E(vib)   ...       0.02
freq.    1105.41  E(vib)   ...       0.02
freq.    1105.73  E(vib)   ...       0.02
freq.    1282.32  E(vib)   ...       0.01
freq.    1395.79  E(vib)   ...       0.00
freq.    1437.98  E(vib)   ...       0.00
freq.    1547.75  E(vib)   ...       0.00
freq.    3201.42  E(vib)   ...       0.00
freq.    3214.32  E(vib)   ...       0.00
freq.    3244.45  E(vib)   ...       0.00
freq.    3247.03  E(vib)   ...       0.00

------------
INNER ENERGY
------------

The inner energy is: U= E(el) + E(ZPE) + E(vib) + E(rot) + E(trans)
    E(el)   - is the total energy from the electronic structure calculation
              = E(kin-el) + E(nuc-el) + E(el-el) + E(nuc-nuc)
    E(ZPE)  - the the zero temperature vibrational energy from the frequency calculation
    E(vib)  - the the finite temperature correction to E(ZPE) due to population
              of excited vibrational states
    E(rot)  - is the rotational thermal energy
    E(trans)- is the translational thermal energy

Summary of contributions to the inner energy U:
Electronic energy                ...   -552.94937988 Eh
Zero point energy                ...      0.06653903 Eh      41.75 kcal/mol
Thermal vibrational correction   ...      0.00122419 Eh       0.77 kcal/mol
Thermal rotational correction    ...      0.00141627 Eh       0.89 kcal/mol
Thermal translational correction ...      0.00141627 Eh       0.89 kcal/mol
-----------------------------------------------------------------------
Total thermal energy                   -552.87878412 Eh


Summary of corrections to the electronic energy:
(perhaps to be used in another calculation)
Total thermal correction                  0.00405674 Eh       2.55 kcal/mol
Non-thermal (ZPE) correction              0.06653903 Eh      41.75 kcal/mol
-----------------------------------------------------------------------
Total correction                          0.07059577 Eh      44.30 kcal/mol


--------
ENTHALPY
--------

The enthalpy is H = U + kB*T
                kB is Boltzmann's constant
Total free energy                 ...   -552.87878412 Eh
Thermal Enthalpy correction       ...      0.00094421 Eh       0.59 kcal/mol
-----------------------------------------------------------------------
Total Enthalpy                    ...   -552.87783991 Eh


Note: Only C1 symmetry has been detected, increase convergence thresholds
      if your molecule has a higher symmetry. Symmetry factor of 1.0 is
      used for the rotational entropy correction.


Note: Rotational entropy computed according to Herzberg
Infrared and Raman Spectra, Chapter V,1, Van Nostrand Reinhold, 1945
Point Group:  C1, Symmetry Number:   1
Rotational constants in cm-1:     0.268763     0.180686     0.108047

Vibrational entropy computed according to the QRRHO of S. Grimme
Chem.Eur.J. 2012 18 9955


-------
ENTROPY
-------

The entropy contributions are T*S = T*(S(el)+S(vib)+S(rot)+S(trans))
     S(el)   - electronic entropy
     S(vib)  - vibrational entropy
     S(rot)  - rotational entropy
     S(trans)- translational entropy
The entropies will be listed as mutliplied by the temperature to get
units of energy

Electronic entropy                ...      0.00000000 Eh      0.00 kcal/mol
Vibrational entropy               ...      0.00160211 Eh      1.01 kcal/mol
Rotational entropy                ...      0.01198934 Eh      7.52 kcal/mol
Translational entropy             ...      0.01862660 Eh     11.69 kcal/mol
-----------------------------------------------------------------------
Final entropy term                ...      0.03221805 Eh     20.22 kcal/mol

In case the symmetry of your molecule has not been determined correctly
or in case you have a reason to use a different symmetry number we print
out the resulting rotational entropy values for sn=1,12 :
 --------------------------------------------------------
|  sn= 1 | S(rot)=       0.01198934 Eh      7.52 kcal/mol|
|  sn= 2 | S(rot)=       0.01133488 Eh      7.11 kcal/mol|
|  sn= 3 | S(rot)=       0.01095205 Eh      6.87 kcal/mol|
|  sn= 4 | S(rot)=       0.01068042 Eh      6.70 kcal/mol|
|  sn= 5 | S(rot)=       0.01046974 Eh      6.57 kcal/mol|
|  sn= 6 | S(rot)=       0.01029759 Eh      6.46 kcal/mol|
|  sn= 7 | S(rot)=       0.01015204 Eh      6.37 kcal/mol|
|  sn= 8 | S(rot)=       0.01002597 Eh      6.29 kcal/mol|
|  sn= 9 | S(rot)=       0.00991476 Eh      6.22 kcal/mol|
|  sn=10 | S(rot)=       0.00981528 Eh      6.16 kcal/mol|
|  sn=11 | S(rot)=       0.00972529 Eh      6.10 kcal/mol|
|  sn=12 | S(rot)=       0.00964313 Eh      6.05 kcal/mol|
 --------------------------------------------------------


-------------------
GIBBS FREE ENERGY
-------------------

The Gibbs free energy is G = H - T*S

Total enthalpy                    ...   -552.87783991 Eh
Total entropy correction          ...     -0.03221805 Eh    -20.22 kcal/mol
-----------------------------------------------------------------------
Final Gibbs free energy         ...   -552.91005796 Eh

For completeness - the Gibbs free energy minus the electronic energy
G-E(el)                           ...      0.03932192 Eh     24.67 kcal/mol


Timings for individual modules:

Sum of individual times         ...      308.241 sec (=   5.137 min)
GTO integral calculation        ...       61.682 sec (=   1.028 min)  20.0 %
SCF iterations                  ...      138.123 sec (=   2.302 min)  44.8 %
SCF Gradient evaluation         ...       22.742 sec (=   0.379 min)   7.4 %
Geometry relaxation             ...        1.160 sec (=   0.019 min)   0.4 %
Analytical frequency calculation...       84.532 sec (=   1.409 min)  27.4 %
                             ****ORCA TERMINATED NORMALLY****
TOTAL RUN TIME: 0 days 0 hours 5 minutes 14 seconds 773 msec
